title = "Plot for node 200035"
VARIABLES =  "Time""Displacement X ""Displacement Y ""Displacement Z ""Displacement Al""Displacement Be""Displacement Ga"
ZONE T= "ONE"  I=  5001  F=POINT
  0.0000000E+00  0.0000000E+00  0.0000000E+00  0.0000000E+00 -0.1503776E+01  0.1658359E+01 -0.9141511E-02
  0.2020933E-01 -0.7349117E-03 -0.1757354E-03  0.1729377E-01 -0.1503670E+01  0.1658373E+01 -0.1765425E-02
  0.3990048E-01 -0.3169045E-02 -0.3953003E-03  0.5233113E-01 -0.1503628E+01  0.1658598E+01  0.9057187E-02
  0.6010981E-01 -0.5274445E-02 -0.4293033E-03  0.8512879E-01 -0.1503583E+01  0.1659135E+01  0.1285618E-01
  0.7980096E-01 -0.6599438E-02 -0.3873255E-03  0.1100272E+00 -0.1503537E+01  0.1659646E+01  0.1271154E-01
  0.1000103E+00 -0.7716118E-02 -0.3253088E-03  0.1339422E+00 -0.1503489E+01  0.1659892E+01  0.1318369E-01
  0.1202196E+00 -0.8896569E-02 -0.2698356E-03  0.1592259E+00 -0.1503444E+01  0.1659950E+01  0.1471738E-01
  0.1399108E+00 -0.1004060E-01 -0.1792373E-03  0.1845998E+00 -0.1503398E+01  0.1659942E+01  0.1619672E-01
  0.1601201E+00 -0.1117859E-01 -0.4941233E-04  0.2104560E+00 -0.1503355E+01  0.1659884E+01  0.1731866E-01
  0.1798112E+00 -0.1226481E-01  0.6964413E-04  0.2353722E+00 -0.1503319E+01  0.1659822E+01  0.1825592E-01
  0.2000206E+00 -0.1330927E-01  0.1694990E-03  0.2608177E+00 -0.1503284E+01  0.1659697E+01  0.1920489E-01
  0.2202299E+00 -0.1419136E-01  0.2080858E-03  0.2861534E+00 -0.1503242E+01  0.1659427E+01  0.2008207E-01
  0.2399211E+00 -0.1489371E-01  0.2481964E-03  0.3107574E+00 -0.1503194E+01  0.1659184E+01  0.2088221E-01
  0.2601304E+00 -0.1556008E-01  0.4707310E-03  0.3359946E+00 -0.1503143E+01  0.1659037E+01  0.2174918E-01
  0.2798215E+00 -0.1622061E-01  0.8000625E-03  0.3604523E+00 -0.1503109E+01  0.1658584E+01  0.2268296E-01
  0.3000309E+00 -0.1662229E-01  0.1052366E-02  0.3850694E+00 -0.1503059E+01  0.1657912E+01  0.2353469E-01
  0.3202402E+00 -0.1666256E-01  0.1270726E-02  0.4088007E+00 -0.1502957E+01  0.1657615E+01  0.2448253E-01
  0.3399314E+00 -0.1730565E-01  0.1523548E-02  0.4299222E+00 -0.1502905E+01  0.1657289E+01  0.2513803E-01
  0.3601407E+00 -0.1974199E-01  0.1676849E-02  0.4496790E+00 -0.1503044E+01  0.1656652E+01  0.2359299E-01
  0.3798318E+00 -0.2307497E-01  0.1740518E-02  0.4723293E+00 -0.1503259E+01  0.1656784E+01  0.2331881E-01
  0.4000412E+00 -0.2457449E-01  0.1981511E-02  0.5011398E+00 -0.1503266E+01  0.1657971E+01  0.2870633E-01
  0.4202505E+00 -0.2223417E-01  0.2324885E-02  0.5243261E+00 -0.1503027E+01  0.1658991E+01  0.3298190E-01
  0.4399416E+00 -0.1708222E-01  0.2387945E-02  0.5319621E+00 -0.1502730E+01  0.1659267E+01  0.2893882E-01
  0.4601510E+00 -0.1177847E-01  0.2350280E-02  0.5331318E+00 -0.1502509E+01  0.1659096E+01  0.2109218E-01
  0.4798421E+00 -0.8906288E-02  0.2533362E-02  0.5448672E+00 -0.1502392E+01  0.1658585E+01  0.1856172E-01
  0.5000515E+00 -0.8711605E-02  0.2922136E-02  0.5744262E+00 -0.1502317E+01  0.1657928E+01  0.2301051E-01
  0.5197426E+00 -0.1051719E-01  0.3418795E-02  0.6123203E+00 -0.1502289E+01  0.1657501E+01  0.2945965E-01
  0.5399519E+00 -0.1347405E-01  0.4008791E-02  0.6487281E+00 -0.1502330E+01  0.1657360E+01  0.3395427E-01
  0.5601613E+00 -0.1646654E-01  0.4575090E-02  0.6763083E+00 -0.1502404E+01  0.1657430E+01  0.3585384E-01
  0.5798524E+00 -0.1877230E-01  0.4906193E-02  0.6937835E+00 -0.1502465E+01  0.1657613E+01  0.3620775E-01
  0.6000617E+00 -0.2063538E-01  0.4918235E-02  0.7030568E+00 -0.1502543E+01  0.1657735E+01  0.3552193E-01
  0.6197529E+00 -0.2220662E-01  0.4756993E-02  0.7051299E+00 -0.1502664E+01  0.1657845E+01  0.3408613E-01
  0.6399622E+00 -0.2318723E-01  0.4578419E-02  0.7020552E+00 -0.1502795E+01  0.1658138E+01  0.3211924E-01
  0.6601716E+00 -0.2270632E-01  0.4347184E-02  0.6958575E+00 -0.1502861E+01  0.1658190E+01  0.2992431E-01
  0.6798627E+00 -0.2045781E-01  0.4049651E-02  0.6889236E+00 -0.1502814E+01  0.1657790E+01  0.2766598E-01
  0.7000720E+00 -0.1719327E-01  0.3818482E-02  0.6830698E+00 -0.1502669E+01  0.1657741E+01  0.2587182E-01
  0.7197632E+00 -0.1511257E-01  0.3711936E-02  0.6794448E+00 -0.1502592E+01  0.1658406E+01  0.2501925E-01
  0.7399725E+00 -0.1545519E-01  0.3597253E-02  0.6773755E+00 -0.1502737E+01  0.1659105E+01  0.2362685E-01
  0.7601819E+00 -0.1678236E-01  0.3506737E-02  0.6784652E+00 -0.1502975E+01  0.1659468E+01  0.2210574E-01
  0.7798730E+00 -0.1634197E-01  0.3604625E-02  0.6845861E+00 -0.1503032E+01  0.1659521E+01  0.2269218E-01
  0.8000823E+00 -0.1349210E-01  0.3847643E-02  0.6936472E+00 -0.1502906E+01  0.1658879E+01  0.2366421E-01
  0.8197735E+00 -0.1000210E-01  0.4034663E-02  0.7024556E+00 -0.1502801E+01  0.1657550E+01  0.2187337E-01
  0.8399828E+00 -0.7138500E-02  0.4207573E-02  0.7159277E+00 -0.1502784E+01  0.1656260E+01  0.1958187E-01
  0.8601921E+00 -0.4669146E-02  0.4511330E-02  0.7406441E+00 -0.1502740E+01  0.1655791E+01  0.2191834E-01
  0.8798833E+00 -0.1296408E-02  0.4932545E-02  0.7725991E+00 -0.1502567E+01  0.1656226E+01  0.2803339E-01
  0.9000926E+00  0.4156246E-02  0.5333889E-02  0.8014500E+00 -0.1502272E+01  0.1657149E+01  0.3200547E-01
  0.9197838E+00  0.1122993E-01  0.5612824E-02  0.8188000E+00 -0.1501937E+01  0.1657978E+01  0.3022748E-01
  0.9399931E+00  0.1876970E-01  0.5918750E-02  0.8312083E+00 -0.1501595E+01  0.1658504E+01  0.2592148E-01
  0.9602024E+00  0.2425355E-01  0.6315702E-02  0.8494536E+00 -0.1501325E+01  0.1658711E+01  0.2427869E-01
  0.9798936E+00  0.2582862E-01  0.6794671E-02  0.8781990E+00 -0.1501228E+01  0.1658525E+01  0.2664127E-01
  0.1000103E+01  0.2348475E-01  0.7449432E-02  0.9160609E+00 -0.1501338E+01  0.1658006E+01  0.3130210E-01
  0.1019794E+01  0.1926505E-01  0.8236903E-02  0.9545844E+00 -0.1501545E+01  0.1657670E+01  0.3581626E-01
  0.1040003E+01  0.1575283E-01  0.9055780E-02  0.9899611E+00 -0.1501676E+01  0.1657740E+01  0.3910156E-01
  0.1060213E+01  0.1459966E-01  0.9759553E-02  0.1018234E+01 -0.1501644E+01  0.1657958E+01  0.4074481E-01
  0.1079904E+01  0.1509989E-01  0.1029769E-01  0.1038704E+01 -0.1501531E+01  0.1658216E+01  0.4150894E-01
  0.1100113E+01  0.1569913E-01  0.1064813E-01  0.1052602E+01 -0.1501481E+01  0.1658433E+01  0.4194088E-01
  0.1119804E+01  0.1593263E-01  0.1073727E-01  0.1058963E+01 -0.1501556E+01  0.1658128E+01  0.4101038E-01
  0.1140014E+01  0.1688444E-01  0.1065898E-01  0.1060093E+01 -0.1501645E+01  0.1657121E+01  0.3858381E-01
  0.1160223E+01  0.1938859E-01  0.1059348E-01  0.1060371E+01 -0.1501606E+01  0.1655943E+01  0.3686168E-01
  0.1179914E+01  0.2251793E-01  0.1060881E-01  0.1062471E+01 -0.1501481E+01  0.1655150E+01  0.3662320E-01
  0.1200123E+01  0.2485490E-01  0.1068091E-01  0.1066225E+01 -0.1501409E+01  0.1654924E+01  0.3632044E-01
  0.1219815E+01  0.2574991E-01  0.1083151E-01  0.1072102E+01 -0.1501429E+01  0.1655374E+01  0.3598143E-01
  0.1240024E+01  0.2617837E-01  0.1112310E-01  0.1082143E+01 -0.1501443E+01  0.1656401E+01  0.3762476E-01
  0.1260233E+01  0.2758674E-01  0.1151357E-01  0.1093964E+01 -0.1501360E+01  0.1657483E+01  0.4100281E-01
  0.1279924E+01  0.3071222E-01  0.1185239E-01  0.1101330E+01 -0.1501195E+01  0.1657960E+01  0.4258434E-01
  0.1300134E+01  0.3532351E-01  0.1208676E-01  0.1102636E+01 -0.1500995E+01  0.1657600E+01  0.4105254E-01
  0.1319825E+01  0.3989678E-01  0.1230242E-01  0.1102910E+01 -0.1500803E+01  0.1656789E+01  0.3987714E-01
  0.1340034E+01  0.4338630E-01  0.1258628E-01  0.1106697E+01 -0.1500632E+01  0.1656170E+01  0.4246350E-01
  0.1360244E+01  0.4522758E-01  0.1280193E-01  0.1109504E+01 -0.1500525E+01  0.1656182E+01  0.4714196E-01
  0.1379935E+01  0.4599318E-01  0.1262788E-01  0.1101540E+01 -0.1500510E+01  0.1656756E+01  0.4915744E-01
  0.1400144E+01  0.4678001E-01  0.1190197E-01  0.1077109E+01 -0.1500543E+01  0.1657647E+01  0.4648852E-01
  0.1419835E+01  0.4796951E-01  0.1091300E-01  0.1041412E+01 -0.1500561E+01  0.1658353E+01  0.4114475E-01
  0.1440045E+01  0.4862680E-01  0.9934481E-02  0.1001735E+01 -0.1500589E+01  0.1658420E+01  0.3619055E-01
  0.1460254E+01  0.4699034E-01  0.9103746E-02  0.9662155E+00 -0.1500719E+01  0.1657816E+01  0.3393328E-01
  0.1479945E+01  0.4252944E-01  0.8423789E-02  0.9366967E+00 -0.1500989E+01  0.1656979E+01  0.3410980E-01
  0.1500154E+01  0.3605974E-01  0.7800196E-02  0.9079400E+00 -0.1501357E+01  0.1656214E+01  0.3455413E-01
  0.1519846E+01  0.2966098E-01  0.7185707E-02  0.8780470E+00 -0.1501694E+01  0.1655827E+01  0.3383221E-01
  0.1540055E+01  0.2417491E-01  0.6528625E-02  0.8448983E+00 -0.1501934E+01  0.1656112E+01  0.3270190E-01
  0.1559746E+01  0.1993109E-01  0.5902152E-02  0.8102315E+00 -0.1502085E+01  0.1657080E+01  0.3191576E-01
  0.1579955E+01  0.1620280E-01  0.5272966E-02  0.7709149E+00 -0.1502238E+01  0.1658335E+01  0.3030325E-01
  0.1600165E+01  0.1287624E-01  0.4615596E-02  0.7277006E+00 -0.1502438E+01  0.1659269E+01  0.2705724E-01
  0.1619856E+01  0.1033038E-01  0.3974461E-02  0.6848419E+00 -0.1502635E+01  0.1659534E+01  0.2355752E-01
  0.1640065E+01  0.8919076E-02  0.3402597E-02  0.6437197E+00 -0.1502767E+01  0.1659110E+01  0.2089791E-01
  0.1659756E+01  0.8729395E-02  0.2966540E-02  0.6081004E+00 -0.1502814E+01  0.1658269E+01  0.1863021E-01
  0.1679966E+01  0.9168788E-02  0.2624398E-02  0.5779181E+00 -0.1502812E+01  0.1657497E+01  0.1621325E-01
  0.1700175E+01  0.9678889E-02  0.2399202E-02  0.5576388E+00 -0.1502764E+01  0.1657367E+01  0.1557181E-01
  0.1719866E+01  0.1011836E-01  0.2322073E-02  0.5482839E+00 -0.1502653E+01  0.1657973E+01  0.1812286E-01
  0.1740075E+01  0.1056291E-01  0.2343201E-02  0.5439234E+00 -0.1502501E+01  0.1658853E+01  0.2190314E-01
  0.1759767E+01  0.1090310E-01  0.2342310E-02  0.5375259E+00 -0.1502379E+01  0.1659303E+01  0.2323868E-01
  0.1779976E+01  0.1078976E-01  0.2302440E-02  0.5270262E+00 -0.1502314E+01  0.1659058E+01  0.2178574E-01
  0.1800185E+01  0.9565875E-02  0.2295779E-02  0.5174328E+00 -0.1502303E+01  0.1658306E+01  0.2064187E-01
  0.1819876E+01  0.6813610E-02  0.2300019E-02  0.5129499E+00 -0.1502344E+01  0.1657527E+01  0.2222644E-01
  0.1840086E+01  0.2587073E-02  0.2259033E-02  0.5108630E+00 -0.1502437E+01  0.1657199E+01  0.2565871E-01
  0.1859777E+01 -0.2001460E-02  0.2142864E-02  0.5044192E+00 -0.1502556E+01  0.1657646E+01  0.2782442E-01
  0.1879986E+01 -0.6227235E-02  0.1902327E-02  0.4882575E+00 -0.1502680E+01  0.1658729E+01  0.2664172E-01
  0.1900196E+01 -0.9659392E-02  0.1561073E-02  0.4643585E+00 -0.1502783E+01  0.1659917E+01  0.2264647E-01
  0.1919887E+01 -0.1272103E-01  0.1249560E-02  0.4408582E+00 -0.1502858E+01  0.1660705E+01  0.1890387E-01
  0.1940096E+01 -0.1647373E-01  0.1057458E-02  0.4232302E+00 -0.1502932E+01  0.1660835E+01  0.1751651E-01
  0.1959787E+01 -0.2141591E-01  0.9863581E-03  0.4138301E+00 -0.1503055E+01  0.1660178E+01  0.1819326E-01
  0.1979996E+01 -0.2783616E-01  0.9477804E-03  0.4099371E+00 -0.1503260E+01  0.1658851E+01  0.1937733E-01
  0.2000206E+01 -0.3488313E-01  0.9180913E-03  0.4096909E+00 -0.1503501E+01  0.1657391E+01  0.2064732E-01
  0.2019897E+01 -0.4068825E-01  0.7393918E-03  0.3946303E+00 -0.1503807E+01  0.1656479E+01  0.1518018E-01
  0.2040106E+01 -0.4391662E-01  0.5164999E-03  0.3604390E+00 -0.1504011E+01  0.1656146E+01  0.5889740E-02
  0.2059797E+01 -0.4604389E-01  0.2765878E-03  0.3277363E+00 -0.1504175E+01  0.1656196E+01  0.2937777E-02
  0.2080007E+01 -0.4692900E-01  0.2786532E-04  0.2986674E+00 -0.1504276E+01  0.1656497E+01  0.3061904E-02
  0.2100216E+01 -0.4542791E-01 -0.1558838E-03  0.2694399E+00 -0.1504255E+01  0.1656849E+01  0.2806436E-02
  0.2119907E+01 -0.4148694E-01 -0.2799538E-03  0.2376547E+00 -0.1504112E+01  0.1656863E+01  0.1430251E-02
  0.2140117E+01 -0.3602282E-01 -0.4108860E-03  0.2017585E+00 -0.1503923E+01  0.1656469E+01 -0.1249308E-02
  0.2159808E+01 -0.3074823E-01 -0.5270986E-03  0.1668106E+00 -0.1503768E+01  0.1656120E+01 -0.4082562E-02
  0.2180017E+01 -0.2634170E-01 -0.6222713E-03  0.1352421E+00 -0.1503654E+01  0.1656303E+01 -0.5047032E-02
  0.2200226E+01 -0.2311342E-01 -0.7078300E-03  0.1084067E+00 -0.1503573E+01  0.1657244E+01 -0.3360458E-02
  0.2219918E+01 -0.2079610E-01 -0.6851406E-03  0.8167629E-01 -0.1503524E+01  0.1658649E+01 -0.1301826E-02
  0.2240127E+01 -0.1902842E-01 -0.5293312E-03  0.4725949E-01 -0.1503534E+01  0.1659881E+01 -0.1539863E-02
  0.2259818E+01 -0.1804234E-01 -0.4194981E-03  0.5430613E-02 -0.1503630E+01  0.1660330E+01 -0.4490631E-02
  0.2280027E+01 -0.1804670E-01 -0.3638667E-03 -0.4182254E-01 -0.1503807E+01  0.1660235E+01 -0.8278109E-02
  0.2300237E+01 -0.1917765E-01 -0.2302948E-03 -0.8821784E-01 -0.1504044E+01  0.1659698E+01 -0.1038515E-01
  0.2319928E+01 -0.2072759E-01 -0.5007683E-04 -0.1317068E+00 -0.1504307E+01  0.1658734E+01 -0.1090853E-01
  0.2340137E+01 -0.2091503E-01  0.1717318E-03 -0.1773720E+00 -0.1504490E+01  0.1658251E+01 -0.1165904E-01
  0.2359828E+01 -0.1814490E-01  0.6413208E-03 -0.2263748E+00 -0.1504453E+01  0.1658787E+01 -0.1270740E-01
  0.2380038E+01 -0.1340732E-01  0.1584888E-02 -0.2850544E+00 -0.1504295E+01  0.1659238E+01 -0.1720059E-01
  0.2400247E+01 -0.1066645E-01  0.2798013E-02 -0.3480716E+00 -0.1504323E+01  0.1659096E+01 -0.2721250E-01
  0.2419938E+01 -0.1275499E-01  0.3652606E-02 -0.3972463E+00 -0.1504637E+01  0.1659072E+01 -0.3415360E-01
  0.2440147E+01 -0.1918720E-01  0.3752585E-02 -0.4229753E+00 -0.1505108E+01  0.1659141E+01 -0.3130238E-01
  0.2459839E+01 -0.2621233E-01  0.3502763E-02 -0.4320708E+00 -0.1505510E+01  0.1658932E+01 -0.2382394E-01
  0.2480048E+01 -0.3072218E-01  0.3429424E-02 -0.4433289E+00 -0.1505769E+01  0.1658671E+01 -0.2017663E-01
  0.2500257E+01 -0.3130849E-01  0.3732644E-02 -0.4653230E+00 -0.1505892E+01  0.1658641E+01 -0.2269023E-01
  0.2519948E+01 -0.2861328E-01  0.4321611E-02 -0.4922155E+00 -0.1505905E+01  0.1658857E+01 -0.2738549E-01
  0.2540158E+01 -0.2341954E-01  0.4851477E-02 -0.5159189E+00 -0.1505813E+01  0.1659386E+01 -0.3075073E-01
  0.2559849E+01 -0.1670810E-01  0.5022246E-02 -0.5297682E+00 -0.1505632E+01  0.1660117E+01 -0.3155439E-01
  0.2580058E+01 -0.8373753E-02  0.4957373E-02 -0.5343739E+00 -0.1505340E+01  0.1660692E+01 -0.3065645E-01
  0.2599749E+01  0.9990422E-03  0.4859070E-02 -0.5322458E+00 -0.1504938E+01  0.1660772E+01 -0.2965393E-01
  0.2619959E+01  0.1077274E-01  0.4659955E-02 -0.5252130E+00 -0.1504465E+01  0.1660196E+01 -0.2953099E-01
  0.2640168E+01  0.1848987E-01  0.4189726E-02 -0.5119973E+00 -0.1504075E+01  0.1659106E+01 -0.2945807E-01
  0.2659859E+01  0.2229954E-01  0.3504199E-02 -0.4906635E+00 -0.1503892E+01  0.1658451E+01 -0.2767440E-01
  0.2680069E+01  0.2233820E-01  0.2717955E-02 -0.4605435E+00 -0.1503918E+01  0.1658827E+01 -0.2342815E-01
  0.2699760E+01  0.2038135E-01  0.1971404E-02 -0.4282025E+00 -0.1504048E+01  0.1659517E+01 -0.1888005E-01
  0.2719969E+01  0.1935154E-01  0.1358691E-02 -0.3975510E+00 -0.1504083E+01  0.1659883E+01 -0.1630625E-01
  0.2740178E+01  0.2102420E-01  0.1015356E-02 -0.3707875E+00 -0.1503868E+01  0.1660067E+01 -0.1512104E-01
  0.2759869E+01  0.2343595E-01  0.8130122E-03 -0.3473383E+00 -0.1503572E+01  0.1659936E+01 -0.1425536E-01
  0.2780079E+01  0.2339682E-01  0.4860341E-03 -0.3244730E+00 -0.1503470E+01  0.1659343E+01 -0.1392745E-01
  0.2799770E+01  0.2025405E-01  0.2210658E-04 -0.3010463E+00 -0.1503592E+01  0.1658921E+01 -0.1237020E-01
  0.2819979E+01  0.1616050E-01 -0.3900158E-03 -0.2768098E+00 -0.1503726E+01  0.1659090E+01 -0.8214020E-02
  0.2840189E+01  0.1343111E-01 -0.5800614E-03 -0.2602598E+00 -0.1503742E+01  0.1659487E+01 -0.5423339E-02
  0.2859880E+01  0.1203004E-01 -0.5467896E-03 -0.2574738E+00 -0.1503717E+01  0.1659598E+01 -0.8417569E-02
  0.2880089E+01  0.9887493E-02 -0.3020237E-03 -0.2619291E+00 -0.1503775E+01  0.1659329E+01 -0.1524425E-01
  0.2899780E+01  0.5112204E-02 -0.1395429E-03 -0.2588812E+00 -0.1503972E+01  0.1658811E+01 -0.1882698E-01
  0.2919990E+01 -0.2749939E-02 -0.4167924E-03 -0.2394533E+00 -0.1504292E+01  0.1658173E+01 -0.1573496E-01
  0.2940199E+01 -0.1128757E-01 -0.9327305E-03 -0.2089808E+00 -0.1504620E+01  0.1657489E+01 -0.8930774E-02
  0.2959890E+01 -0.1690433E-01 -0.1227846E-02 -0.1809453E+00 -0.1504794E+01  0.1656821E+01 -0.3728473E-02
  0.2980099E+01 -0.1767213E-01 -0.1221473E-02 -0.1628013E+00 -0.1504716E+01  0.1656456E+01 -0.2139239E-02
  0.2999791E+01 -0.1395151E-01 -0.1077005E-02 -0.1565352E+00 -0.1504424E+01  0.1656703E+01 -0.3457619E-02
  0.3020000E+01 -0.8145656E-02 -0.9126844E-03 -0.1577375E+00 -0.1504064E+01  0.1657405E+01 -0.5635030E-02
  0.3040209E+01 -0.3268535E-02 -0.7654906E-03 -0.1622782E+00 -0.1503828E+01  0.1658333E+01 -0.6965377E-02
  0.3059900E+01 -0.4969408E-03 -0.6517259E-03 -0.1687428E+00 -0.1503775E+01  0.1659322E+01 -0.7443344E-02
  0.3080110E+01  0.1375594E-02 -0.5327991E-03 -0.1787906E+00 -0.1503797E+01  0.1659917E+01 -0.8812129E-02
  0.3099801E+01  0.3610731E-02 -0.3345646E-03 -0.1913714E+00 -0.1503757E+01  0.1659748E+01 -0.1185726E-01
  0.3120010E+01  0.6030447E-02 -0.6679593E-04 -0.2026542E+00 -0.1503635E+01  0.1659298E+01 -0.1456367E-01
  0.3140220E+01  0.6680238E-02  0.1220808E-03 -0.2084670E+00 -0.1503572E+01  0.1659171E+01 -0.1477114E-01
  0.3159911E+01  0.4514550E-02  0.2080524E-03 -0.2100643E+00 -0.1503687E+01  0.1659381E+01 -0.1367081E-01
  0.3180120E+01  0.6450899E-03  0.3200819E-03 -0.2113328E+00 -0.1503908E+01  0.1659741E+01 -0.1290978E-01
  0.3199811E+01 -0.2533309E-02  0.5390763E-03 -0.2150365E+00 -0.1504052E+01  0.1660017E+01 -0.1284550E-01
  0.3220020E+01 -0.4289536E-02  0.8930160E-03 -0.2231244E+00 -0.1504066E+01  0.1659877E+01 -0.1413860E-01
  0.3240230E+01 -0.5798939E-02  0.1363138E-02 -0.2347818E+00 -0.1504053E+01  0.1659136E+01 -0.1752133E-01
  0.3259921E+01 -0.9138261E-02  0.1802930E-02 -0.2445424E+00 -0.1504155E+01  0.1658173E+01 -0.2102348E-01
  0.3280130E+01 -0.1555595E-01  0.2005050E-02 -0.2471553E+00 -0.1504434E+01  0.1657555E+01 -0.2154150E-01
  0.3299821E+01 -0.2367616E-01  0.1980821E-02 -0.2434722E+00 -0.1504814E+01  0.1657659E+01 -0.1918897E-01
  0.3320031E+01 -0.3138800E-01  0.2044262E-02 -0.2409483E+00 -0.1505195E+01  0.1658317E+01 -0.1830103E-01
  0.3340240E+01 -0.3623058E-01  0.2400189E-02 -0.2439864E+00 -0.1505446E+01  0.1659033E+01 -0.2209350E-01
  0.3359931E+01 -0.3780669E-01  0.2906955E-02 -0.2459830E+00 -0.1505499E+01  0.1659472E+01 -0.2790298E-01
  0.3380141E+01 -0.3775386E-01  0.3177233E-02 -0.2347547E+00 -0.1505396E+01  0.1659604E+01 -0.3088662E-01
  0.3399832E+01 -0.3812573E-01  0.2872814E-02 -0.2040107E+00 -0.1505261E+01  0.1659392E+01 -0.2839997E-01
  0.3420041E+01 -0.3978196E-01  0.2101791E-02 -0.1555116E+00 -0.1505182E+01  0.1658889E+01 -0.2187906E-01
  0.3440250E+01 -0.4150782E-01  0.1301012E-02 -0.1003595E+00 -0.1505134E+01  0.1658365E+01 -0.1500120E-01
  0.3459942E+01 -0.4131257E-01  0.7899661E-03 -0.4981248E-01 -0.1505015E+01  0.1658004E+01 -0.1089571E-01
  0.3480151E+01 -0.3838363E-01  0.5430519E-03 -0.4751124E-02 -0.1504772E+01  0.1657837E+01 -0.9733267E-02
  0.3499842E+01 -0.3383486E-01  0.4174766E-03  0.3500074E-01 -0.1504472E+01  0.1658024E+01 -0.9302167E-02
  0.3520051E+01 -0.2900469E-01  0.3186353E-03  0.7450648E-01 -0.1504201E+01  0.1658558E+01 -0.7734735E-02
  0.3539742E+01 -0.2472999E-01  0.2758370E-03  0.1111762E+00 -0.1504015E+01  0.1659014E+01 -0.6166912E-02
  0.3559952E+01 -0.2019677E-01  0.2765488E-03  0.1456426E+00 -0.1503852E+01  0.1659002E+01 -0.6128738E-02
  0.3580161E+01 -0.1480688E-01  0.2826393E-03  0.1789822E+00 -0.1503627E+01  0.1658494E+01 -0.6927176E-02
  0.3599852E+01 -0.8950814E-02  0.3156445E-03  0.2144090E+00 -0.1503322E+01  0.1657826E+01 -0.6718508E-02
  0.3620062E+01 -0.3552142E-02  0.4110024E-03  0.2561694E+00 -0.1502988E+01  0.1657341E+01 -0.4818942E-02
  0.3639753E+01 -0.2488934E-03  0.5443808E-03  0.3014754E+00 -0.1502746E+01  0.1657316E+01 -0.1541963E-02
  0.3659962E+01  0.6081698E-03  0.7203717E-03  0.3494007E+00 -0.1502632E+01  0.1657729E+01  0.2921804E-02
  0.3680171E+01 -0.4285444E-03  0.9713926E-03  0.3930537E+00 -0.1502629E+01  0.1658204E+01  0.7062397E-02
  0.3699863E+01 -0.2210878E-02  0.1249869E-02  0.4262514E+00 -0.1502703E+01  0.1658239E+01  0.8441471E-02
  0.3720072E+01 -0.4243834E-02  0.1496736E-02  0.4508283E+00 -0.1502835E+01  0.1657616E+01  0.6715900E-02
  0.3739763E+01 -0.6341954E-02  0.1705228E-02  0.4718895E+00 -0.1502987E+01  0.1656630E+01  0.5035868E-02
  0.3759972E+01 -0.8371706E-02  0.1907622E-02  0.4967224E+00 -0.1503115E+01  0.1655768E+01  0.6677465E-02
  0.3780182E+01 -0.9470804E-02  0.2086852E-02  0.5229732E+00 -0.1503178E+01  0.1655438E+01  0.1099772E-01
  0.3799873E+01 -0.8548850E-02  0.2203474E-02  0.5418322E+00 -0.1503161E+01  0.1655686E+01  0.1386771E-01
  0.3820082E+01 -0.4782510E-02  0.2271495E-02  0.5484548E+00 -0.1503042E+01  0.1656351E+01  0.1272660E-01
  0.3839773E+01  0.1185630E-02  0.2365379E-02  0.5451523E+00 -0.1502835E+01  0.1657056E+01  0.8754598E-02
  0.3859983E+01  0.7841243E-02  0.2487907E-02  0.5406777E+00 -0.1502600E+01  0.1657485E+01  0.5341272E-02
  0.3880192E+01  0.1305491E-01  0.2564020E-02  0.5425711E+00 -0.1502433E+01  0.1657508E+01  0.5597287E-02
  0.3899883E+01  0.1607907E-01  0.2617052E-02  0.5501252E+00 -0.1502375E+01  0.1657240E+01  0.9218822E-02
  0.3920093E+01  0.1780344E-01  0.2662782E-02  0.5559854E+00 -0.1502415E+01  0.1656820E+01  0.1317649E-01
  0.3939784E+01  0.1946625E-01  0.2596763E-02  0.5519635E+00 -0.1502511E+01  0.1656478E+01  0.1434085E-01
  0.3959993E+01  0.2244584E-01  0.2387736E-02  0.5353636E+00 -0.1502588E+01  0.1656493E+01  0.1275917E-01
  0.3980202E+01  0.2744155E-01  0.2138117E-02  0.5086633E+00 -0.1502573E+01  0.1657039E+01  0.1031234E-01
  0.3999893E+01  0.3419789E-01  0.1920698E-02  0.4755701E+00 -0.1502464E+01  0.1657895E+01  0.7994946E-02
  0.4020103E+01  0.4252209E-01  0.1743431E-02  0.4352429E+00 -0.1502300E+01  0.1658649E+01  0.5036668E-02
  0.4039794E+01  0.5128627E-01  0.1664611E-02  0.3906863E+00 -0.1502117E+01  0.1658882E+01  0.1115141E-02
  0.4060003E+01  0.5986104E-01  0.1713031E-02  0.3422202E+00 -0.1501935E+01  0.1658511E+01 -0.3545736E-02
  0.4080213E+01  0.6637213E-01  0.1834928E-02  0.2950405E+00 -0.1501835E+01  0.1657765E+01 -0.8175069E-02
  0.4099904E+01  0.6928973E-01  0.1938622E-02  0.2547388E+00 -0.1501889E+01  0.1657124E+01 -0.1178907E-01
  0.4120113E+01  0.6846429E-01  0.1982055E-02  0.2228590E+00 -0.1502100E+01  0.1657009E+01 -0.1320282E-01
  0.4139804E+01  0.6501525E-01  0.1967772E-02  0.2008897E+00 -0.1502380E+01  0.1657554E+01 -0.1193381E-01
  0.4160014E+01  0.6054015E-01  0.1952304E-02  0.1824593E+00 -0.1502661E+01  0.1658427E+01 -0.9998607E-02
  0.4180223E+01  0.5654738E-01  0.2009556E-02  0.1621143E+00 -0.1502894E+01  0.1659019E+01 -0.1039893E-01
  0.4199914E+01  0.5349226E-01  0.2149375E-02  0.1400220E+00 -0.1503071E+01  0.1659013E+01 -0.1330245E-01
  0.4220123E+01  0.5075841E-01  0.2250696E-02  0.1207891E+00 -0.1503216E+01  0.1658511E+01 -0.1596840E-01
  0.4239815E+01  0.4821112E-01  0.2146907E-02  0.1107660E+00 -0.1503314E+01  0.1657883E+01 -0.1562266E-01
  0.4260024E+01  0.4621015E-01  0.1882922E-02  0.1086075E+00 -0.1503336E+01  0.1657510E+01 -0.1252786E-01
  0.4280233E+01  0.4548711E-01  0.1663769E-02  0.1078428E+00 -0.1503262E+01  0.1657678E+01 -0.9551605E-02
  0.4299924E+01  0.4584067E-01  0.1580588E-02  0.1021623E+00 -0.1503149E+01  0.1658299E+01 -0.9441545E-02
  0.4320134E+01  0.4617600E-01  0.1588899E-02  0.9123806E-01 -0.1503071E+01  0.1659067E+01 -0.1228369E-01
  0.4339825E+01  0.4518470E-01  0.1586291E-02  0.8205466E-01 -0.1503078E+01  0.1659603E+01 -0.1522157E-01
  0.4360034E+01  0.4211957E-01  0.1432299E-02  0.8144431E-01 -0.1503166E+01  0.1659729E+01 -0.1533213E-01
  0.4380243E+01  0.3750052E-01  0.1108576E-02  0.9122528E-01 -0.1503296E+01  0.1659352E+01 -0.1215380E-01
  0.4399935E+01  0.3298893E-01  0.7730908E-03  0.1059634E+00 -0.1503391E+01  0.1658573E+01 -0.8131618E-02
  0.4420144E+01  0.2985580E-01  0.5281907E-03  0.1201782E+00 -0.1503391E+01  0.1657657E+01 -0.5164200E-02
  0.4439835E+01  0.2869448E-01  0.3782132E-03  0.1298689E+00 -0.1503284E+01  0.1657104E+01 -0.3606024E-02
  0.4460044E+01  0.2873650E-01  0.2563257E-03  0.1348375E+00 -0.1503122E+01  0.1657189E+01 -0.2728565E-02
  0.4480254E+01  0.2899340E-01  0.1472883E-03  0.1348205E+00 -0.1502984E+01  0.1657841E+01 -0.2385489E-02
  0.4499945E+01  0.2896887E-01  0.6608642E-04  0.1302052E+00 -0.1502892E+01  0.1658625E+01 -0.2623676E-02
  0.4520154E+01  0.2869929E-01  0.1314303E-04  0.1212902E+00 -0.1502811E+01  0.1659107E+01 -0.3430161E-02
  0.4539845E+01  0.2801190E-01 -0.1393071E-04  0.1095564E+00 -0.1502734E+01  0.1658941E+01 -0.4941103E-02
  0.4560055E+01  0.2587489E-01 -0.4058481E-04  0.9684130E-01 -0.1502712E+01  0.1658139E+01 -0.7192172E-02
  0.4579746E+01  0.2117258E-01 -0.1325726E-03  0.8806290E-01 -0.1502821E+01  0.1657191E+01 -0.8798068E-02
  0.4599955E+01  0.1343436E-01 -0.3526806E-03  0.8678748E-01 -0.1503066E+01  0.1656642E+01 -0.7895130E-02
  0.4620165E+01  0.4199645E-02 -0.6268062E-03  0.9276009E-01 -0.1503343E+01  0.1656806E+01 -0.4139416E-02
  0.4639856E+01 -0.4143255E-02 -0.8026497E-03  0.9960095E-01 -0.1503528E+01  0.1657465E+01  0.1052571E-03
  0.4660065E+01 -0.1075043E-01 -0.8477368E-03  0.1004090E+00 -0.1503593E+01  0.1658187E+01  0.2398000E-02
  0.4679756E+01 -0.1564387E-01 -0.8211187E-03  0.9229277E-01 -0.1503597E+01  0.1658517E+01  0.1989125E-02
  0.4699965E+01 -0.2055471E-01 -0.8031251E-03  0.7731102E-01 -0.1503644E+01  0.1658309E+01  0.5403877E-03
  0.4720175E+01 -0.2658474E-01 -0.8745771E-03  0.5958993E-01 -0.1503798E+01  0.1657749E+01  0.2646303E-03
  0.4739866E+01 -0.3345704E-01 -0.1041702E-02  0.4004928E-01 -0.1504038E+01  0.1657283E+01  0.1538063E-02
  0.4760075E+01 -0.4024373E-01 -0.1221113E-02  0.1338159E-01 -0.1504309E+01  0.1657239E+01  0.2457838E-02
  0.4779766E+01 -0.4523319E-01 -0.1296313E-02 -0.2346052E-01 -0.1504530E+01  0.1657679E+01  0.6263739E-03
  0.4799976E+01 -0.4825213E-01 -0.1205048E-02 -0.7181622E-01 -0.1504689E+01  0.1658450E+01 -0.4242545E-02
  0.4820185E+01 -0.4992808E-01 -0.9560480E-03 -0.1243850E+00 -0.1504806E+01  0.1659288E+01 -0.9696203E-02
  0.4839876E+01 -0.5142757E-01 -0.6518196E-03 -0.1727010E+00 -0.1504929E+01  0.1659879E+01 -0.1315459E-01
  0.4860086E+01 -0.5331439E-01 -0.3508338E-03 -0.2164264E+00 -0.1505083E+01  0.1659966E+01 -0.1447576E-01
  0.4879777E+01 -0.5489940E-01 -0.5970905E-04 -0.2548807E+00 -0.1505221E+01  0.1659459E+01 -0.1486017E-01
  0.4899986E+01 -0.5529527E-01  0.3014040E-03 -0.2931388E+00 -0.1505283E+01  0.1658576E+01 -0.1550670E-01
  0.4920195E+01 -0.5426376E-01  0.7821910E-03 -0.3323020E+00 -0.1505261E+01  0.1657798E+01 -0.1682469E-01
  0.4939887E+01 -0.5277268E-01  0.1358647E-02 -0.3719525E+00 -0.1505240E+01  0.1657568E+01 -0.1875684E-01
  0.4960096E+01 -0.5180650E-01  0.2014398E-02 -0.4136208E+00 -0.1505310E+01  0.1658057E+01 -0.2115326E-01
  0.4979787E+01 -0.5147576E-01  0.2705689E-02 -0.4541159E+00 -0.1505465E+01  0.1659041E+01 -0.2357139E-01
  0.4999996E+01 -0.5077875E-01  0.3498483E-02 -0.4946405E+00 -0.1505616E+01  0.1660037E+01 -0.2625394E-01
  0.5020206E+01 -0.4879912E-01  0.4366037E-02 -0.5328749E+00 -0.1505665E+01  0.1660471E+01 -0.2963076E-01
  0.5039897E+01 -0.4586704E-01  0.5173414E-02 -0.5649554E+00 -0.1505607E+01  0.1660208E+01 -0.3336708E-01
  0.5060106E+01 -0.4313459E-01  0.5746222E-02 -0.5875331E+00 -0.1505511E+01  0.1659572E+01 -0.3611304E-01
  0.5079797E+01 -0.4199759E-01  0.5848045E-02 -0.5954235E+00 -0.1505457E+01  0.1659121E+01 -0.3603292E-01
  0.5100007E+01 -0.4271550E-01  0.5478427E-02 -0.5894314E+00 -0.1505472E+01  0.1659193E+01 -0.3293857E-01
  0.5120216E+01 -0.4457534E-01  0.4894788E-02 -0.5748401E+00 -0.1505528E+01  0.1659795E+01 -0.2868087E-01
  0.5139907E+01 -0.4642786E-01  0.4412515E-02 -0.5593141E+00 -0.1505579E+01  0.1660558E+01 -0.2582868E-01
  0.5160116E+01 -0.4788250E-01  0.4099687E-02 -0.5457482E+00 -0.1505613E+01  0.1661069E+01 -0.2525718E-01
  0.5179808E+01 -0.4922199E-01  0.3854433E-02 -0.5333444E+00 -0.1505654E+01  0.1661018E+01 -0.2578794E-01
  0.5200017E+01 -0.5103813E-01  0.3495962E-02 -0.5177125E+00 -0.1505735E+01  0.1660437E+01 -0.2529644E-01
  0.5220226E+01 -0.5300245E-01  0.3003447E-02 -0.4981280E+00 -0.1505848E+01  0.1659604E+01 -0.2309676E-01
  0.5239917E+01 -0.5379589E-01  0.2521255E-02 -0.4783429E+00 -0.1505929E+01  0.1658874E+01 -0.2087580E-01
  0.5260127E+01 -0.5195845E-01  0.2162804E-02 -0.4610343E+00 -0.1505902E+01  0.1658457E+01 -0.2048242E-01
  0.5279818E+01 -0.4703194E-01  0.1982134E-02 -0.4468778E+00 -0.1505720E+01  0.1658486E+01 -0.2198064E-01
  0.5300027E+01 -0.3972219E-01  0.1868127E-02 -0.4307381E+00 -0.1505406E+01  0.1658895E+01 -0.2363628E-01
  0.5320237E+01 -0.3215004E-01  0.1652231E-02 -0.4081169E+00 -0.1505072E+01  0.1659406E+01 -0.2367222E-01
  0.5339928E+01 -0.2612527E-01  0.1266433E-02 -0.3781139E+00 -0.1504824E+01  0.1659638E+01 -0.2183970E-01
  0.5360137E+01 -0.2159853E-01  0.7586537E-03 -0.3407490E+00 -0.1504661E+01  0.1659368E+01 -0.1879699E-01
  0.5379828E+01 -0.1796495E-01  0.2666552E-03 -0.3010427E+00 -0.1504536E+01  0.1658670E+01 -0.1562775E-01
  0.5400038E+01 -0.1405934E-01 -0.1592004E-03 -0.2598731E+00 -0.1504389E+01  0.1657840E+01 -0.1281369E-01
  0.5420247E+01 -0.9558671E-02 -0.4753787E-03 -0.2200066E+00 -0.1504212E+01  0.1657340E+01 -0.1051728E-01
  0.5439938E+01 -0.4629113E-02 -0.6841048E-03 -0.1830982E+00 -0.1504023E+01  0.1657466E+01 -0.8394630E-02
  0.5460147E+01  0.9866474E-03 -0.8219642E-03 -0.1481311E+00 -0.1503814E+01  0.1658183E+01 -0.6164261E-02
  0.5479838E+01  0.7218127E-02 -0.8917554E-03 -0.1186381E+00 -0.1503580E+01  0.1659067E+01 -0.4533548E-02
  0.5500048E+01  0.1448636E-01 -0.8840968E-03 -0.9448521E-01 -0.1503292E+01  0.1659638E+01 -0.4305789E-02
  0.5520257E+01  0.2196562E-01 -0.8007096E-03 -0.7542090E-01 -0.1502981E+01  0.1659542E+01 -0.5518553E-02
  0.5539948E+01  0.2798192E-01 -0.7042485E-03 -0.5793734E-01 -0.1502725E+01  0.1658871E+01 -0.6750655E-02
  0.5560158E+01  0.3128929E-01 -0.6684987E-03 -0.3704344E-01 -0.1502589E+01  0.1657970E+01 -0.6321926E-02
  0.5579849E+01  0.3114121E-01 -0.7050938E-03 -0.1325877E-01 -0.1502613E+01  0.1657340E+01 -0.3743294E-02
  0.5600058E+01  0.2822142E-01 -0.7512666E-03  0.1048318E-01 -0.1502776E+01  0.1657240E+01 -0.2984927E-03